                         Program Version 5.0.3 -  RELEASE  -
|  1> !ZINDO/S Conv Hueckel VeryTightSCF SlowConv DIIS NoMOPrint MiniPrint
|  2> %rel SOCType 1 end
|  3>
|  4> %method FrozenCore fc_none end
|  5> %cis NRoots 1
|  6>      MaxDim 100
|  7>      EWin -0.00001,0.00001
|  8> end
|  9>
| 10> * xyzfile 0 1 /home/bpanthi/bpanthi/config_files_orca/MoleculesMappedFromSampleSpace/molecule019999.xyz
| 11>
| 12>                          ****END OF INPUT****

CARTESIAN COORDINATES (ANGSTROEM)
---------------------------------
  C     -0.068276    1.393504    0.062817
  C      1.254940    0.645649   -0.057046
  C      1.290864   -0.748620    0.029428
  C     -0.050858   -1.487567   -0.052318
  C     -1.251950   -0.700011   -0.032317
  C     -1.177117    0.859607    0.019571
  H      0.035611    2.426750    0.000023
  H      2.135172    1.234738   -0.011830
  H      2.239756   -1.275203   -0.027168
  H      0.014593   -2.551262   -0.055703
  H     -2.207026   -1.219371    0.060757
  H     -2.052828    1.219149   -0.113005

ORBITAL ENERGIES
----------------

  NO   OCC          E(Eh)            E(eV)
   0   2.0000      -1.555298       -42.3218
   1   2.0000      -1.239336       -33.7241
   2   2.0000      -1.184011       -32.2186
   3   2.0000      -0.938360       -25.5341
   4   2.0000      -0.924063       -25.1450
   5   2.0000      -0.851460       -23.1694
   6   2.0000      -0.672331       -18.2951
   7   2.0000      -0.631616       -17.1871
   8   2.0000      -0.588053       -16.0017
   9   2.0000      -0.555649       -15.1200
  10   2.0000      -0.487021       -13.2525
  11   2.0000      -0.464157       -12.6304
  12   2.0000      -0.450494       -12.2586
  13   2.0000      -0.348588        -9.4856
  14   2.0000      -0.319575        -8.6961
  15   0.0000       0.013076         0.3558
  16   0.0000       0.032295         0.8788
  17   0.0000       0.100797         2.7428
  18   0.0000       0.104403         2.8409
  19   0.0000       0.131849         3.5878

Total SCF time: 0 days 0 hours 0 min 0 sec

-----------------------------------------------------------------------------
         ABSORPTION SPECTRUM VIA TRANSITION ELECTRIC DIPOLE MOMENTS
-----------------------------------------------------------------------------
State   Energy    Wavelength  fosc         T2        TX        TY        TZ
        (cm-1)      (nm)                 (au**2)    (au)      (au)      (au)
-----------------------------------------------------------------------------
   1   38818.6    257.6   0.005199117   0.04409   0.07116   0.19699  -0.01495

FINAL SINGLE POINT ENERGY        -4.166553460718

DIPOLE MOMENT
-------------
                                X             Y             Z
Electronic contribution:      0.21246      -1.11056       0.24509
Nuclear contribution   :      0.19419      -0.14797      -0.13558
                        -----------------------------------------
Total Dipole Moment    :      0.40665      -1.25852       0.10951
                        -----------------------------------------
Magnitude (a.u.)       :      1.32712
Magnitude (Debye)      :      3.37327

Rotational constants in cm-1:     0.186267     0.171740     0.089481
Rotational constants in MHz :  5584.130085  5148.626953  2682.571332

                             ****ORCA TERMINATED NORMALLY****
TOTAL RUN TIME: 0 days 0 hours 0 minutes 0 seconds 715 msec
